   * xtb version 6.7.1 (edcfbbe) compiled by 'conda@afd1a870197c' on 2025-04-11

   ID    Z sym.   atoms
    1    8 O      1, 5
    2    6 C      2-4
    3    1 H      6-9

          program call               : xtb ../../pre/conformer_15.xyz --verbose --namespace conformer_15 --json --ohess vtight --alpb Toluene --gfn 2 --parallel 16 --acc 1.0 --iterations 250 --etemp 298.15
      * Solvation model:               ALPB
        Solvent                        Toluene
        Solvent mass                       7.8110E+01 g/mol
          :  Hamiltonian                  GFN2-xTB          :
 * total energy  :   -16.5821927 Eh     change       -0.3056755E-10 Eh
 * total energy  :   -16.5831998 Eh     change       -0.1007149E-02 Eh
 * total energy  :   -16.5832371 Eh     change       -0.3729847E-04 Eh
 * total energy  :   -16.5832407 Eh     change       -0.3629665E-05 Eh
 * total energy  :   -16.5832409 Eh     change       -0.2030469E-06 Eh
 * total energy  :   -16.5832410 Eh     change       -0.4485985E-07 Eh
   *** GEOMETRY OPTIMIZATION CONVERGED AFTER 6 ITERATIONS ***

 final structure:
================
9
 xtb: 6.7.1 (edcfbbe)
O           -1.64003514167450        2.02618515042938        0.54484373711318
C           -0.82533488491940        1.19184513720646        0.78849244721745
C           -0.52109304979281        0.25255726096244        1.93910417019716
C            0.63353033772410       -0.18662936008445        1.02982774656535
O            0.21095088604755        0.76462837575410        0.02780748246214
H           -0.24277029438470        0.74704937199692        2.86617485332448
H           -1.29055074072639       -0.49015157975571        2.13340145335696
H            0.58369914551223       -1.20458668897039        0.64291372150791
H            1.63965874221392        0.04242533246125        1.38152638825538

          :  Hamiltonian                  GFN2-xTB          :
         :: gradient norm              0.000052440966 Eh/a0 ::
         :: HOMO-LUMO gap              5.031538288204 eV    ::
         :: SCC energy               -16.738366456017 Eh    ::
         :: -> dispersion             -0.003961707941 Eh    ::
         :: -> Gsolv                  -0.008823645051 Eh    ::
         :: repulsion energy           0.155125477314 Eh    ::

    * Orbital Energies and Occupations

         #    Occupation            Energy/Eh            Energy/eV
      -------------------------------------------------------------
         1        2.0000           -0.7601188             -20.6839
         2        2.0000           -0.7387721             -20.1030
         3        2.0000           -0.6816819             -18.5495
         4        2.0000           -0.6588783             -17.9290
         5        2.0000           -0.6086947             -16.5634
         6        2.0000           -0.6039699             -16.4349
         7        2.0000           -0.5933923             -16.1470
         8        2.0000           -0.5755853             -15.6625
         9        2.0000           -0.5380119             -14.6400
        10        2.0000           -0.5132509             -13.9663
        11        2.0000           -0.5074376             -13.8081
        12        2.0000           -0.4929521             -13.4139
        13        2.0000           -0.4610504             -12.5458
        14        2.0000           -0.4321651             -11.7598 (HOMO)
        15                         -0.2472594              -6.7283 (LUMO)
        16                         -0.0429176              -1.1678
        17                         -0.0128323              -0.3492
        18                          0.1054753               2.8701
        19                          0.1217990               3.3143
        20                          0.1300339               3.5384
        21                          0.1566224               4.2619
        22                          0.2620228               7.1300
        23                          0.2776174               7.5544
        24                          0.7082150              19.2715
      -------------------------------------------------------------
                  HL-Gap            0.1849057 Eh            5.0315 eV

     #   Z          covCN         q      C6AA      α(0)
     1   8 O        0.856    -0.381    21.304     6.188
     2   6 C        3.131     0.371    20.570     7.425
     3   6 C        3.851    -0.109    22.548     6.754
     4   6 C        4.115     0.069    19.340     6.246
     5   8 O        1.751    -0.274    18.532     5.813
     6   1 H        0.925     0.088     1.900     2.156
     7   1 H        0.925     0.088     1.900     2.156
     8   1 H        0.925     0.074     2.043     2.235
     9   1 H        0.925     0.074     2.043     2.235

Wiberg/Mayer (AO) data.
largest (>0.10) Wiberg bond orders for each atom

     #   Z sym  total        # sym  WBO       # sym  WBO       # sym  WBO
 ---------------------------------------------------------------------------
     1   8 O    2.096 --     2 C    1.794     5 O    0.179
     2   6 C    3.915 --     1 O    1.794     5 O    1.111     3 C    0.966
     3   6 C    3.987 --     4 C    1.003     2 C    0.966     6 H    0.958
                             7 H    0.958
     4   6 C    3.917 --     3 C    1.003     8 H    0.973     9 H    0.973
                             5 O    0.945
     5   8 O    2.280 --     2 C    1.111     4 C    0.945     1 O    0.179
     6   1 H    0.992 --     3 C    0.958
     7   1 H    0.992 --     3 C    0.958
     8   1 H    0.995 --     4 C    0.973
     9   1 H    0.995 --     4 C    0.973
 ---------------------------------------------------------------------------

molecular dipole:
                 x           y           z       tot (Debye)
 q only:        0.739      -1.214       0.994
   full:        0.859      -1.345       1.042       4.846
Molecule has the following symmetry elements: (sigma)
It seems to be the Cs point group

 projected vibrational frequencies (cm⁻¹)
eigval :       -0.00    -0.00     0.00     0.00     0.00     0.00
eigval :      189.78   497.08   497.73   739.45   787.20   941.19
eigval :      983.05  1014.27  1057.41  1091.87  1096.73  1122.57
eigval :     1185.87  1243.72  1407.26  1455.74  1859.09  2987.23
eigval :     2994.61  3032.70  3033.54

   temp. (K)  partition function   enthalpy   heat capacity  entropy
                                   cal/mol     cal/K/mol   cal/K/mol   J/K/mol
 298.15  VIB   2.24                  927.864      8.747      4.718
         ROT  0.536E+05              888.752      2.981     24.622
         INT  0.120E+06             1816.617     11.728     29.341
         TR   0.592E+27             1481.254      4.968     38.724
         TOT                        3297.8705    16.6960    68.0645   284.7818

       T/K    H(0)-H(T)+PV         H(T)/Eh          T*S/Eh         G(T)/Eh
   ------------------------------------------------------------------------
    298.15    0.525549E-02    0.718192E-01    0.323396E-01    0.394795E-01
   ------------------------------------------------------------------------

         :::::::::::::::::::::::::::::::::::::::::::::::::::::
         ::                  THERMODYNAMIC                  ::
         :::::::::::::::::::::::::::::::::::::::::::::::::::::
         :: total free energy         -16.543761429221 Eh   ::
         ::.................................................::
         :: total energy              -16.583240978513 Eh   ::
         :: zero point energy           0.066563685697 Eh   ::
         :: G(RRHO) w/o ZPVE           -0.027084136405 Eh   ::
         :: G(RRHO) contrib.            0.039479549293 Eh   ::
         :::::::::::::::::::::::::::::::::::::::::::::::::::::

           -------------------------------------------------
          | TOTAL ENERGY              -16.583240978513 Eh   |
          | TOTAL ENTHALPY            -16.511421801583 Eh   |
          | TOTAL FREE ENERGY         -16.543761429221 Eh   |
          | GRADIENT NORM               0.000052522187 Eh/α |
          | HOMO-LUMO GAP               5.031539858737 eV   |
           -------------------------------------------------

 * finished run on 2025/06/26 at 15:11:11.664
normal termination of xtb
