   * xtb version 6.7.1 (edcfbbe) compiled by 'conda@afd1a870197c' on 2025-04-11

   ID    Z sym.   atoms
    1    8 O      1, 5, 7, 10
    2    6 C      2-4, 6, 8, 9
    3    1 H      11-18

          program call               : xtb ../../pre/conformer_15.xyz --verbose --namespace conformer_15 --json --ohess vtight --alpb Toluene --gfn 2 --parallel 16 --acc 1.0 --iterations 250 --etemp 298.15
      * Solvation model:               ALPB
        Solvent                        Toluene
        Solvent mass                       7.8110E+01 g/mol
          :  Hamiltonian                  GFN2-xTB          :
 * total energy  :   -33.1953793 Eh     change       -0.1663381E-10 Eh
 * total energy  :   -33.2022947 Eh     change       -0.6915431E-02 Eh
 * total energy  :   -33.2030710 Eh     change       -0.7763052E-03 Eh
 * total energy  :   -33.2034101 Eh     change       -0.3390794E-03 Eh
 * total energy  :   -33.2036383 Eh     change       -0.2281836E-03 Eh
 * total energy  :   -33.2038164 Eh     change       -0.1781699E-03 Eh
 * total energy  :   -33.2039322 Eh     change       -0.1157801E-03 Eh
 * total energy  :   -33.2040007 Eh     change       -0.6852381E-04 Eh
 * total energy  :   -33.2040230 Eh     change       -0.2229619E-04 Eh
 * total energy  :   -33.2040270 Eh     change       -0.3974248E-05 Eh
 * total energy  :   -33.2040296 Eh     change       -0.2556396E-05 Eh
 * total energy  :   -33.2040305 Eh     change       -0.9240254E-06 Eh
 * total energy  :   -33.2040306 Eh     change       -0.1287015E-06 Eh
 * total energy  :   -33.2040309 Eh     change       -0.2969764E-06 Eh
 * total energy  :   -33.2040310 Eh     change       -0.7093971E-07 Eh
   *** GEOMETRY OPTIMIZATION CONVERGED AFTER 15 ITERATIONS ***

 final structure:
================
18
 xtb: 6.7.1 (edcfbbe)
O           -1.54057212384452       -0.34036140784570       -2.88593059557687
C           -0.84217743798870       -0.07148629941723       -1.94242459031492
C           -0.38053329213453       -1.16498682109258       -0.98655080687705
C            1.07720853499708       -1.10052580145981       -0.52093553179713
O            1.27593418074825       -0.68775162309051        0.82702924855884
C            0.71537827971762        0.35226164445637        1.44546873716867
O            0.94970328442103        0.50031356954952        2.61739982328245
C           -0.19459887734061        1.32886257977511        0.71022553601126
C            0.24890713065060        1.75926274914126       -0.69120628334522
O           -0.49562662747392        1.20469685304535       -1.77051476649076
H           -1.04703914683013       -1.19918313634171       -0.12080565220818
H           -0.54079335399180       -2.09644375278222       -1.53352755495574
H            1.68624821555430       -0.49202858099862       -1.19826645893670
H            1.49819057507871       -2.10995517435275       -0.52220590116459
H           -1.20954709673912        0.92471990017255        0.67207528946592
H           -0.23857027109113        2.20725821230921        1.35750553471906
H            1.32040666618348        1.58790864354900       -0.84118435026808
H            0.07072536008341        2.83187744538277       -0.80914067727104

          :  Hamiltonian                  GFN2-xTB          :
         :: gradient norm              0.000063374173 Eh/a0 ::
         :: HOMO-LUMO gap              4.591390465494 eV    ::
         :: SCC energy               -33.505695910323 Eh    ::
         :: -> dispersion             -0.013842657352 Eh    ::
         :: -> Gsolv                  -0.015977226770 Eh    ::
         :: repulsion energy           0.301664937023 Eh    ::

    * Orbital Energies and Occupations

         #    Occupation            Energy/Eh            Energy/eV
      -------------------------------------------------------------
         1        2.0000           -0.7695952             -20.9418
       ...           ...                  ...                  ...
        16        2.0000           -0.5756742             -15.6649
        17        2.0000           -0.5477464             -14.9049
        18        2.0000           -0.5462534             -14.8643
        19        2.0000           -0.5303385             -14.4312
        20        2.0000           -0.5212673             -14.1844
        21        2.0000           -0.5055073             -13.7556
        22        2.0000           -0.5023517             -13.6697
        23        2.0000           -0.5000834             -13.6080
        24        2.0000           -0.4922627             -13.3951
        25        2.0000           -0.4695546             -12.7772
        26        2.0000           -0.4632116             -12.6046
        27        2.0000           -0.4413710             -12.0103
        28        2.0000           -0.4278037             -11.6411 (HOMO)
        29                         -0.2590733              -7.0497 (LUMO)
        30                         -0.2517186              -6.8496
        31                         -0.0366633              -0.9977
        32                         -0.0298142              -0.8113
        33                          0.0291497               0.7932
        34                          0.0306903               0.8351
        35                          0.0466325               1.2689
        36                          0.0813790               2.2144
        37                          0.0869327               2.3656
        38                          0.0998217               2.7163
        39                          0.1074714               2.9244
       ...                                ...                  ...
        48                          0.5924197              16.1206
      -------------------------------------------------------------
                  HL-Gap            0.1687304 Eh            4.5914 eV

     #   Z          covCN         q      C6AA      α(0)
     1   8 O        0.857    -0.396    21.611     6.233
     2   6 C        2.692     0.356    20.959     7.492
     3   6 C        3.799    -0.110    22.596     6.768
     4   6 C        3.678     0.071    19.597     6.342
     5   8 O        1.704    -0.249    18.120     5.747
     6   6 C        2.692     0.356    20.959     7.492
     7   8 O        0.857    -0.396    21.611     6.233
     8   6 C        3.799    -0.110    22.596     6.768
     9   6 C        3.678     0.071    19.597     6.342
    10   8 O        1.704    -0.249    18.120     5.747
    11   1 H        0.924     0.084     1.934     2.175
    12   1 H        0.924     0.091     1.872     2.140
    13   1 H        0.924     0.061     2.184     2.311
    14   1 H        0.924     0.091     1.869     2.138
    15   1 H        0.924     0.084     1.934     2.175
    16   1 H        0.924     0.091     1.872     2.140
    17   1 H        0.924     0.061     2.184     2.311
    18   1 H        0.924     0.091     1.869     2.138

Wiberg/Mayer (AO) data.
largest (>0.10) Wiberg bond orders for each atom

     #   Z sym  total        # sym  WBO       # sym  WBO       # sym  WBO
 ---------------------------------------------------------------------------
     1   8 O    2.046 --     2 C    1.752    10 O    0.166
     2   6 C    3.918 --     1 O    1.752    10 O    1.140     3 C    0.966
     3   6 C    3.990 --     4 C    0.994     2 C    0.966    12 H    0.965
                            11 H    0.946
     4   6 C    3.925 --     3 C    0.994    14 H    0.964    13 H    0.961
                             5 O    0.943
     5   8 O    2.334 --     6 C    1.140     4 C    0.943     7 O    0.166
     6   6 C    3.918 --     7 O    1.752     5 O    1.140     8 C    0.966
     7   8 O    2.046 --     6 C    1.752     5 O    0.166
     8   6 C    3.990 --     9 C    0.994     6 C    0.966    16 H    0.965
                            15 H    0.946
     9   6 C    3.925 --     8 C    0.994    18 H    0.964    17 H    0.961
                            10 O    0.943
    10   8 O    2.334 --     2 C    1.140     9 C    0.943     1 O    0.166
    11   1 H    0.993 --     3 C    0.946
    12   1 H    0.992 --     3 C    0.965
    13   1 H    0.996 --     4 C    0.961
    14   1 H    0.992 --     4 C    0.964
    15   1 H    0.993 --     8 C    0.946
    16   1 H    0.992 --     8 C    0.965
    17   1 H    0.996 --     9 C    0.961
    18   1 H    0.992 --     9 C    0.964
 ---------------------------------------------------------------------------

molecular dipole:
                 x           y           z       tot (Debye)
 q only:        0.413       0.107      -0.203
   full:        0.453       0.118      -0.223       1.318

 projected vibrational frequencies (cm⁻¹)
eigval :       -0.00    -0.00     0.00     0.00     0.00     0.00
eigval :       69.19   105.90   149.31   185.83   255.09   287.42
eigval :      333.49   376.56   441.00   517.52   556.43   606.34
eigval :      639.56   655.30   711.40   797.30   893.23   941.11
eigval :      947.58  1008.16  1018.38  1051.03  1083.02  1092.75
eigval :     1117.77  1152.50  1172.51  1223.02  1230.13  1241.34
eigval :     1309.34  1310.62  1338.81  1348.18  1431.49  1454.64
eigval :     1457.40  1486.01  1723.31  1739.85  2924.73  2933.52
eigval :     2966.97  2969.33  2974.40  2978.69  3004.42  3005.90

   temp. (K)  partition function   enthalpy   heat capacity  entropy
                                   cal/mol     cal/K/mol   cal/K/mol   J/K/mol
 298.15  VIB   145.                 3847.963     27.316     22.568
         ROT  0.300E+06              888.752      2.981     28.042
         INT  0.436E+08             4736.715     30.296     50.610
         TR   0.167E+28             1481.254      4.968     40.789
         TOT                        6217.9691    35.2646    91.3994   382.4151

       T/K    H(0)-H(T)+PV         H(T)/Eh          T*S/Eh         G(T)/Eh
   ------------------------------------------------------------------------
    298.15    0.990896E-02    0.147095E+00    0.434268E-01    0.103668E+00
   ------------------------------------------------------------------------

         :::::::::::::::::::::::::::::::::::::::::::::::::::::
         ::                  THERMODYNAMIC                  ::
         :::::::::::::::::::::::::::::::::::::::::::::::::::::
         :: total free energy         -33.100362644809 Eh   ::
         ::.................................................::
         :: total energy              -33.204030973435 Eh   ::
         :: zero point energy           0.137186167423 Eh   ::
         :: G(RRHO) w/o ZPVE           -0.033517838797 Eh   ::
         :: G(RRHO) contrib.            0.103668328626 Eh   ::
         :::::::::::::::::::::::::::::::::::::::::::::::::::::

           -------------------------------------------------
          | TOTAL ENERGY              -33.204030973435 Eh   |
          | TOTAL ENTHALPY            -33.056935841523 Eh   |
          | TOTAL FREE ENERGY         -33.100362644809 Eh   |
          | GRADIENT NORM               0.000063572116 Eh/α |
          | HOMO-LUMO GAP               4.591389185470 eV   |
           -------------------------------------------------

normal termination of xtb
 * finished run on 2025/06/26 at 15:11:14.908
